Variables= "riseTime","lpercent","T","v","v2NPT","beta","KT"
zone
  10.0000    0.6000      0.9978908909  14307.1307477158     37.3348598778      0.0026150435      0.0033864441
 100.0000    0.6000      1.1477146385  14404.4885609519 113715.6914542615      6.8784190811      0.0034189124
1000.0000    0.6000      0.9977188381  14306.5601639434      1.0890270770      0.0000762949      0.0033861923
zone
  10.0000    0.6000      0.9958894211  14306.0375059076     61.0476947427      0.0042848813      0.0033861064
 100.0000    0.6000      1.1491651735  14396.6917548184 118955.7390336394      7.1901878607      0.0034151398
1000.0000    0.6000      0.9960246375  14305.5079705914      1.8534596562      0.0001300798      0.0033858472
zone
  10.0000    0.6000      0.9905641636  14304.0197486164     53.4291854501      0.0037708377      0.0033856243
 100.0000    0.6000      1.1467875012  14395.2642374511 122724.2927193344      7.4340922466      0.0034146805
1000.0000    0.6000      0.9904539846  14304.0227745620      1.0509585142      0.0000741811      0.0033856352
