Variables= "riseTime","lpercent","T","v","v2NPT","beta","KT"
zone
  10.0000    0.8000      1.9079295970  13889.4419521336 222180.9716756642      8.3841631265      0.0010244695
 100.0000    0.8000      1.6551776522  13806.6469051199 386755.9886920154     16.9240466990      0.0010005330
1000.0000    0.8000      1.1072302170  13721.2462125737  14383.0604238510      0.9467162206      0.0009784623
zone
  10.0000    0.8000      1.8557963804  13875.6421520582 233188.2043924630      9.0557237142      0.0010205303
 100.0000    0.8000      1.6559707829  13803.1853817967 396770.9097988308     17.3583256836      0.0009994530
1000.0000    0.8000      1.1039554245  13721.5529259768  14988.3379970491      0.9894609870      0.0009785805
zone
  10.0000    0.8000      1.3090154585  13777.3771200116 155922.1875040233      8.6456290465      0.0009941618
 100.0000    0.8000      1.9289652635  13944.1749005176 340480.5424259007     12.6582908341      0.0010417624
1000.0000    0.8000      1.0981146785  13722.6011140101  16869.1411059797      1.1194606559      0.0009789445
