Variables= "riseTime","lpercent","T","v","v2NPT","beta","KT"
zone
  10.0000    0.0000      0.9980641136  14306.9390196706     43.2175293565      0.0030265982      0.0033863395
 100.0000    0.0000      0.9979839016  14306.6994321968     11.6801548898      0.0008180609      0.0033862345
1000.0000    0.0000      0.9976800020  14306.5977461571      0.6055823565      0.0000424273      0.0033862133
zone
  10.0000    0.0000      0.9956348565  14305.5604438573     37.6976204216      0.0026467259      0.0033859055
 100.0000    0.0000      0.9962249975  14306.0504105552     13.6744590104      0.0009594735      0.0033860834
1000.0000    0.0000      0.9958439056  14306.0419827757      0.6638158560      0.0000465947      0.0033861125
zone
  10.0000    0.0000      0.9905661834  14303.8849316362     44.2350119352      0.0031219694      0.0033855611
 100.0000    0.0000      0.9906393561  14303.8888374084     13.1878615618      0.0009306892      0.0033855566
1000.0000    0.0000      0.9907015498  14304.0764150625      0.8576841950      0.0000605236      0.0033856389
