Variables= "riseTime","lpercent","T","v","v2NPT","beta","KT"
zone
  10.0000    0.0000      0.9948915308  13750.8177296755     68.5552873611      0.0050111418      0.0009883845
 100.0000    0.0000      0.9951911309  13751.7433875102     38.4690234363      0.0028109098      0.0009886676
1000.0000    0.0000      0.9949134987  13750.4756436652      4.7242506146      0.0003453265      0.0009882789
zone
  10.0000    0.0000      0.9861381462  13750.3126745347     62.0235673785      0.0045741079      0.0009882960
 100.0000    0.0000      0.9859295670  13750.3201397624     37.3878692687      0.0027578587      0.0009882999
1000.0000    0.0000      0.9860095090  13750.5020447726      5.5823917687      0.0004117377      0.0009883554
zone
  10.0000    0.0000      0.9615358564  13752.0065935010  32670.1685371697      2.4706988833      0.0009890072
 100.0000    0.0000      0.9605754125  13747.8118425417     41.1436627805      0.0031155728      0.0009877215
1000.0000    0.0000      0.9606218978  13748.0888168950      5.9270265400      0.0004487889      0.0009878064
